# LAMMPS data file written by OVITO Pro 3.9.2-dev-HEAD-055ef65d

5166 atoms
7749 bonds
1 atom types
1 bond types

-50.0 50.0 xlo xhi
-50.0 50.0 ylo yhi
-50.0 50.0 zlo zhi

Masses

1 1.0

Atoms  # full

5166 1 1 1.0 39.930226 -23.524267 5.260456
1 1 1 1.0 36.414575 -22.885977 4.943306
2 1 1 1.0 37.762673 -23.210032 4.508476
3 1 1 1.0 38.715268 -23.390738 5.46667
4 1 1 1.0 39.225787 -23.21121 7.800707
5 1 1 1.0 38.929733 -23.034721 9.089195
6 1 1 1.0 41.080504 -22.782412 -1.952714
7 1 1 1.0 39.887504 -22.953695 9.948582
8 1 1 1.0 40.568021 -22.693712 11.861183
9 1 1 1.0 42.703293 -23.345381 2.689973
10 1 1 1.0 42.820155 -23.474573 3.97838
11 1 1 1.0 41.41258 -23.125685 8.324412
12 1 1 1.0 41.976798 -22.809084 10.452161
13 1 1 1.0 41.628257 -22.683706 11.533542
14 1 1 1.0 41.575775 -22.330896 13.410787
15 1 1 1.0 43.56921 -22.788736 -2.181417
16 1 1 1.0 42.477501 -23.024498 0.025692
17 1 1 1.0 42.945703 -23.360405 6.577614
18 1 1 1.0 42.754927 -23.156179 7.903488
19 1 1 1.0 42.291636 -22.511002 12.437839
20 1 1 1.0 43.698458 -23.101295 0.619947
21 1 1 1.0 43.785848 -23.253258 1.949666
22 1 1 1.0 44.104051 -23.446077 5.919834
23 1 1 1.0 43.696815 -22.977682 8.88798
24 1 1 1.0 43.21665 -22.788927 10.204459
25 1 1 1.0 45.046848 -22.984045 8.710759
26 1 1 1.0 44.017339 -22.612066 11.249782
27 1 1 1.0 43.440865 -22.459518 12.401779
28 1 1 1.0 46.011851 -23.10277 0.558015
29 1 1 1.0 45.233212 -23.364395 6.405384
30 1 1 1.0 45.643727 -23.169294 7.606209
31 1 1 1.0 45.878849 -22.765732 9.90466
32 1 1 1.0 45.329505 -22.582504 11.127204
33 1 1 1.0 47.155313 -22.833231 -1.337755
34 1 1 1.0 48.407246 -23.157694 3.802014
35 1 1 1.0 46.374618 -23.450937 5.560703
36 1 1 1.0 46.972261 -23.095505 7.568887
37 1 1 1.0 47.20018 -22.682562 9.752259
38 1 1 1.0 48.162791 -22.630022 -1.858338
39 1 1 1.0 47.377443 -23.263029 6.3057
40 1 1 1.0 47.696713 -22.827093 8.521035
41 1 1 1.0 48.000973 -22.363028 10.778764
42 1 1 1.0 49.248226 -22.38328 -1.290697
43 1 1 1.0 49.390468 -22.465189 -0.053397
44 1 1 1.0 49.019843 -22.976023 4.806652
45 1 1 1.0 48.554051 -23.042776 6.020882
46 1 1 1.0 48.949459 -22.557594 8.322753
47 1 1 1.0 49.401615 -22.605759 7.085785
48 1 1 1.0 49.996341 -22.538565 2.593317
49 1 1 1.0 -49.321739 -22.400141 3.597709
50 1 1 1.0 -49.691302 -22.549799 4.648595
51 1 1 1.0 32.955568 -21.703735 5.981478
52 1 1 1.0 33.832745 -21.726122 2.141977
53 1 1 1.0 33.425458 -21.776766 3.512566
54 1 1 1.0 34.304215 -22.179382 4.413154
55 1 1 1.0 34.012139 -22.099543 5.643736
56 1 1 1.0 34.904417 -22.320684 6.536053
57 1 1 1.0 35.691957 -22.185837 0.85936
58 1 1 1.0 35.007271 -22.089334 1.892711
59 1 1 1.0 34.760949 -21.855011 9.680174
60 1 1 1.0 35.030549 -21.762049 10.91174
61 1 1 1.0 36.570269 -22.213175 -1.236457
62 1 1 1.0 35.802431 -22.49626 2.886144
63 1 1 1.0 35.506663 -22.535662 4.035998
64 1 1 1.0 37.586091 -22.75675 9.511491
65 1 1 1.0 37.416433 -22.530489 10.875316
66 1 1 1.0 36.240348 -22.087545 11.521192
67 1 1 1.0 36.393637 -21.806131 13.032199
68 1 1 1.0 37.881369 -21.807516 -4.355308
69 1 1 1.0 38.649642 -22.498339 -2.669692
70 1 1 1.0 37.551205 -22.112497 -3.238961
71 1 1 1.0 37.739999 -22.618416 -0.747119
72 1 1 1.0 38.562021 -22.660212 11.676215
73 1 1 1.0 38.534996 -22.449158 12.836091
74 1 1 1.0 37.542698 -22.038025 13.546199
75 1 1 1.0 37.980558 -21.762154 14.656522
76 1 1 1.0 39.829191 -21.666595 -5.255123
77 1 1 1.0 39.142145 -22.004822 -4.440567
78 1 1 1.0 39.539902 -22.401144 -3.420683
79 1 1 1.0 39.317233 -21.983175 14.591723
80 1 1 1.0 40.765163 -22.522699 -3.194817
81 1 1 1.0 40.941687 -21.777395 -5.115926
82 1 1 1.0 41.479903 -22.237177 -4.075504
83 1 1 1.0 42.018247 -21.974131 14.446289
84 1 1 1.0 42.674658 -22.179222 -4.241665
85 1 1 1.0 43.649225 -22.468473 -3.524209
86 1 1 1.0 43.37526 -21.864931 14.543593
87 1 1 1.0 45.001298 -22.27294 -4.058077
88 1 1 1.0 44.082017 -22.170218 13.472032
89 1 1 1.0 43.903186 -21.450186 15.539515
90 1 1 1.0 46.11691 -22.523947 -3.332779
91 1 1 1.0 47.591927 -21.712427 -5.000911
92 1 1 1.0 47.343876 -22.283354 -3.756377
93 1 1 1.0 46.185375 -22.334932 12.317726
94 1 1 1.0 45.514362 -22.07519 13.510558
95 1 1 1.0 46.063928 -21.645323 14.73648
96 1 1 1.0 48.839805 -21.331743 -5.160984
97 1 1 1.0 48.257713 -22.376343 -2.992079
98 1 1 1.0 47.535512 -22.198624 12.121689
99 1 1 1.0 47.401958 -21.366219 15.005385
100 1 1 1.0 49.656281 -21.549376 -4.103293
101 1 1 1.0 49.32224 -22.02305 -3.178922
102 1 1 1.0 49.964108 -22.017691 -2.119843
103 1 1 1.0 49.252074 -22.066917 10.542893
104 1 1 1.0 49.597256 -21.553024 12.586385
105 1 1 1.0 49.996665 -21.626532 11.500294
106 1 1 1.0 -49.004432 -21.623621 -2.079014
107 1 1 1.0 -48.354485 -21.509949 -1.172684
108 1 1 1.0 -48.521396 -21.720854 -0.080776
109 1 1 1.0 -49.490863 -22.143646 0.536866
110 1 1 1.0 -49.327336 -22.212767 1.73318
111 1 1 1.0 -48.919658 -22.223108 5.629103
112 1 1 1.0 -49.36095 -22.212317 6.852063
113 1 1 1.0 -48.598037 -21.762396 7.867651
114 1 1 1.0 -47.421097 -21.386017 0.548024
115 1 1 1.0 -47.317313 -21.47998 1.643232
116 1 1 1.0 -48.254085 -21.883936 2.210746
117 1 1 1.0 -48.294472 -22.010592 3.3197
118 1 1 1.0 -47.35316 -21.748154 4.063531
119 1 1 1.0 -47.608784 -21.811014 5.322048
120 1 1 1.0 -47.347438 -21.356234 7.670177
121 1 1 1.0 -46.393036 -21.359344 3.568846
122 1 1 1.0 -46.799479 -21.394058 6.347536
123 1 1 1.0 31.323355 -20.651785 9.593574
124 1 1 1.0 31.650377 -20.92894 1.733841
125 1 1 1.0 31.498106 -21.072489 7.271405
126 1 1 1.0 31.308477 -21.005638 3.084146
127 1 1 1.0 31.955712 -21.404654 5.194417
128 1 1 1.0 32.673578 -21.481771 7.219223
129 1 1 1.0 33.082598 -21.136902 -0.173125
130 1 1 1.0 32.882713 -21.270506 1.235194
131 1 1 1.0 32.133525 -21.397848 3.956088
132 1 1 1.0 32.596016 -21.055538 9.956638
133 1 1 1.0 32.915519 -20.963118 11.21738
134 1 1 1.0 32.170361 -20.520164 12.156339
135 1 1 1.0 32.900424 -20.498774 13.313297
136 1 1 1.0 32.436709 -19.953077 14.400743
137 1 1 1.0 34.289871 -21.26223 -2.236959
138 1 1 1.0 34.05414 -21.294647 11.685184
139 1 1 1.0 34.096407 -20.998398 13.005277
140 1 1 1.0 33.209552 -19.753036 15.536927
141 1 1 1.0 35.411295 -21.467512 -3.038344
142 1 1 1.0 36.504665 -21.926916 -2.591759
143 1 1 1.0 35.226105 -21.184389 13.742841
144 1 1 1.0 35.964175 -20.808081 -5.240509
145 1 1 1.0 38.114964 -20.90724 -6.386481
146 1 1 1.0 37.296814 -21.220606 -5.263074
147 1 1 1.0 37.502929 -21.225574 15.586014
148 1 1 1.0 38.250537 -21.014618 16.52009
149 1 1 1.0 37.905458 -20.460936 17.580328
150 1 1 1.0 39.386564 -21.155926 -6.29327
151 1 1 1.0 39.403002 -21.17218 16.48823
152 1 1 1.0 39.8708 -20.725454 17.490257
153 1 1 1.0 41.762799 -21.426977 -5.875433
154 1 1 1.0 42.000862 -21.048679 16.70096
155 1 1 1.0 41.168365 -20.620451 17.712797
156 1 1 1.0 42.84855 -21.659286 -5.429706
157 1 1 1.0 43.254671 -21.022404 16.663628
158 1 1 1.0 43.931042 -21.399656 -5.980417
159 1 1 1.0 45.109223 -21.724058 -5.326244
160 1 1 1.0 44.185444 -20.638231 17.501862
161 1 1 1.0 46.472886 -21.404142 -5.84548
162 1 1 1.0 45.159509 -21.325602 15.693877
163 1 1 1.0 45.409416 -20.849998 16.857988
164 1 1 1.0 48.90817 -20.324127 -7.08794
165 1 1 1.0 -49.545609 -20.347599 -5.911507
166 1 1 1.0 49.278706 -20.719393 -6.032544
167 1 1 1.0 48.349206 -21.472361 14.182536
168 1 1 1.0 -49.237346 -21.106171 -4.122185
169 1 1 1.0 -48.878135 -20.516747 -5.058838
170 1 1 1.0 -49.758077 -21.067251 13.497104
171 1 1 1.0 49.945869 -20.446587 15.509698
172 1 1 1.0 49.56577 -20.98369 14.487789
173 1 1 1.0 -48.539927 -21.185776 -3.156985
174 1 1 1.0 -47.445602 -20.75902 -3.161635
175 1 1 1.0 -48.344283 -21.271891 10.09266
176 1 1 1.0 -48.814762 -21.233263 11.27144
177 1 1 1.0 -48.09397 -20.789087 12.257351
178 1 1 1.0 -48.637876 -20.696581 13.396923
179 1 1 1.0 -45.783476 -20.352942 -2.191967
180 1 1 1.0 -46.796167 -20.749596 -2.18785
181 1 1 1.0 -47.240543 -21.062683 -1.27687
182 1 1 1.0 -46.689034 -21.001253 -0.221086
183 1 1 1.0 -46.397575 -21.217825 2.257501
184 1 1 1.0 -46.635567 -20.912115 8.708203
185 1 1 1.0 -47.149545 -20.874968 9.90161
186 1 1 1.0 -46.903212 -20.39152 12.060834
187 1 1 1.0 -45.082949 -20.223967 -1.218087
188 1 1 1.0 -45.410006 -20.501371 8.599411
189 1 1 1.0 -44.827044 -20.106127 9.602912
190 1 1 1.0 -44.899706 -20.460245 0.900185
191 1 1 1.0 -45.37203 -20.797869 1.964632
192 1 1 1.0 -44.673067 -20.666887 2.965483
193 1 1 1.0 -45.326597 -21.019785 3.951445
194 1 1 1.0 -44.840981 -20.84136 5.052172
195 1 1 1.0 -45.489447 -20.954369 6.221887
196 1 1 1.0 -43.654585 -20.227753 2.966396
197 1 1 1.0 -43.542067 -20.306177 5.092303
198 1 1 1.0 -44.811846 -20.5058 7.435736
199 1 1 1.0 28.458716 -19.573235 1.672013
200 1 1 1.0 29.351099 -20.354692 4.301684
201 1 1 1.0 29.823047 -20.574936 5.635645
202 1 1 1.0 28.980289 -20.085909 6.737312
203 1 1 1.0 28.733154 -19.583191 9.073964
204 1 1 1.0 29.585375 -20.192129 1.858196
205 1 1 1.0 29.484861 -20.13826 8.040867
206 1 1 1.0 30.936868 -19.851282 -3.074273
207 1 1 1.0 30.574839 -20.445871 1.002609
208 1 1 1.0 29.680254 -19.804586 -1.014932
209 1 1 1.0 30.6416 -20.273684 -0.28509
210 1 1 1.0 30.980839 -20.118376 11.981322
211 1 1 1.0 30.174942 -19.540934 13.126385
212 1 1 1.0 30.900749 -19.397026 14.388847
213 1 1 1.0 33.234756 -20.700754 -2.984567
214 1 1 1.0 32.067219 -20.387217 -2.427043
215 1 1 1.0 31.917023 -20.623148 -0.962176
216 1 1 1.0 33.215428 -19.821512 -5.251799
217 1 1 1.0 33.724222 -20.483028 -4.214001
218 1 1 1.0 36.107272 -20.231974 16.788177
219 1 1 1.0 36.333236 -19.845152 -7.505609
220 1 1 1.0 35.468588 -20.072206 -6.414822
221 1 1 1.0 37.646973 -20.26766 -7.454703
222 1 1 1.0 36.857739 -20.078989 17.719385
223 1 1 1.0 38.517468 -19.973118 -8.468174
224 1 1 1.0 38.898657 -20.311844 18.227701
225 1 1 1.0 39.026609 -19.806639 19.331984
226 1 1 1.0 38.073173 -19.372652 20.004347
227 1 1 1.0 40.708789 -19.788023 -9.199444
228 1 1 1.0 39.839585 -20.217005 -8.298125
229 1 1 1.0 40.24069 -20.760231 -7.191442
230 1 1 1.0 40.362611 -19.655136 19.83877
231 1 1 1.0 41.504428 -20.920485 -6.912801
232 1 1 1.0 41.532224 -20.055338 18.957029
233 1 1 1.0 42.15319 -19.902603 -8.97753
234 1 1 1.0 42.547724 -20.491835 -7.797571
235 1 1 1.0 42.889507 -19.828508 19.443186
236 1 1 1.0 43.888587 -20.738695 -7.310913
237 1 1 1.0 44.129653 -20.131021 18.704588
238 1 1 1.0 45.157569 -20.401865 -7.952741
239 1 1 1.0 45.448532 -19.801537 19.386705
240 1 1 1.0 46.563686 -20.74291 -7.141481
241 1 1 1.0 47.80543 -20.297556 -7.685414
242 1 1 1.0 49.081639 -19.441872 18.772026
243 1 1 1.0 49.898442 -19.715395 -7.571165
244 1 1 1.0 -49.244088 -19.767698 -6.814721
245 1 1 1.0 -47.762604 -20.076738 -5.066861
246 1 1 1.0 -47.976695 -20.098127 14.463952
247 1 1 1.0 -45.824327 -19.772173 -4.116661
248 1 1 1.0 -47.027493 -20.239408 -4.134858
249 1 1 1.0 -45.229746 -19.895132 -3.147554
250 1 1 1.0 -46.707821 -19.704638 14.283393
251 1 1 1.0 -44.160637 -19.51811 -2.81758
252 1 1 1.0 -44.886168 -19.490845 12.742016
253 1 1 1.0 -44.054367 -19.760904 -1.543061
254 1 1 1.0 -43.770767 -20.0 0.971007
255 1 1 1.0 -43.224609 -19.898489 2.036368
256 1 1 1.0 -43.009201 -20.045467 3.992488
257 1 1 1.0 -43.6262 -19.601784 9.670757
258 1 1 1.0 -43.139448 -19.411316 -0.908997
259 1 1 1.0 -43.052734 -19.526564 0.219786
260 1 1 1.0 -42.227615 -19.350531 1.943497
261 1 1 1.0 -42.942633 -19.918009 6.218891
262 1 1 1.0 -42.96126 -19.49585 8.624129
263 1 1 1.0 26.799397 -18.286018 0.468175
264 1 1 1.0 27.65427 -19.23292 2.847902
265 1 1 1.0 28.060822 -19.648796 4.123871
266 1 1 1.0 26.200531 -18.410877 4.996319
267 1 1 1.0 27.767739 -19.423672 6.490044
268 1 1 1.0 27.077998 -18.80172 7.513599
269 1 1 1.0 27.538841 -18.908888 8.793965
270 1 1 1.0 26.863854 -18.261065 9.784406
271 1 1 1.0 27.295455 -18.342806 11.067711
272 1 1 1.0 28.705476 -18.625809 -3.882016
273 1 1 1.0 27.945107 -18.722837 -1.875317
274 1 1 1.0 27.980472 -19.08593 0.443551
275 1 1 1.0 28.440104 -19.038605 11.403207
276 1 1 1.0 28.884725 -18.987574 12.827664
277 1 1 1.0 30.870313 -19.386328 -4.369712
278 1 1 1.0 30.402291 -18.713022 15.5747
279 1 1 1.0 31.890441 -19.301125 -5.342518
280 1 1 1.0 34.13876 -19.587431 -6.443114
281 1 1 1.0 33.693856 -18.86348 -7.578515
282 1 1 1.0 34.577149 -18.644564 -8.672456
283 1 1 1.0 36.777286 -18.927141 -9.691243
284 1 1 1.0 35.886701 -19.14146 -8.627843
285 1 1 1.0 36.331969 -18.596411 20.533678
286 1 1 1.0 38.996186 -19.016762 -10.52036
287 1 1 1.0 38.094316 -19.33629 -9.582481
288 1 1 1.0 41.068255 -18.810884 -11.087399
289 1 1 1.0 40.288543 -19.224607 -10.307372
290 1 1 1.0 40.556452 -19.006729 21.091356
291 1 1 1.0 39.311757 -18.511595 21.816282
292 1 1 1.0 42.247269 -18.86368 -10.973929
293 1 1 1.0 41.881232 -18.744537 21.567335
294 1 1 1.0 42.911957 -19.391983 -9.971988
295 1 1 1.0 43.044674 -19.166113 20.800903
296 1 1 1.0 44.301292 -18.895216 21.313334
297 1 1 1.0 44.244019 -19.319597 -10.088087
298 1 1 1.0 45.281316 -19.746445 -9.231437
299 1 1 1.0 45.465005 -19.228127 20.637732
300 1 1 1.0 46.65326 -18.870813 21.234926
301 1 1 1.0 47.786456 -19.647917 -8.968833
302 1 1 1.0 49.046237 -18.469099 -10.539512
303 1 1 1.0 47.824303 -18.988417 20.623543
304 1 1 1.0 48.926811 -18.417772 21.197159
305 1 1 1.0 -49.964686 -18.363941 20.531778
306 1 1 1.0 -48.869481 -18.590977 -8.851899
307 1 1 1.0 -48.235959 -19.319262 -6.927346
308 1 1 1.0 -47.954414 -18.694395 -7.949674
309 1 1 1.0 -47.421948 -19.459154 -6.032154
310 1 1 1.0 -46.307529 -19.00342 -6.095509
311 1 1 1.0 -45.445019 -19.153769 -5.112018
312 1 1 1.0 -46.004499 -19.140928 15.099206
313 1 1 1.0 -47.124809 -18.806437 16.973642
314 1 1 1.0 -44.40486 -18.692207 -5.239116
315 1 1 1.0 -43.472178 -18.610229 -4.522379
316 1 1 1.0 -43.336714 -18.954483 -3.424235
317 1 1 1.0 -44.21015 -18.971792 13.717285
318 1 1 1.0 -44.798906 -18.822763 14.810931
319 1 1 1.0 -42.220324 -18.545332 -2.771574
320 1 1 1.0 -42.129326 -18.759371 -1.530855
321 1 1 1.0 -42.071312 -19.094675 0.866354
322 1 1 1.0 -43.40144 -19.274216 10.959488
323 1 1 1.0 -42.412329 -18.664129 11.45337
324 1 1 1.0 -42.34271 -18.335388 12.72594
325 1 1 1.0 -43.112404 -18.507135 13.649509
326 1 1 1.0 -41.156126 -18.231659 -0.806496
327 1 1 1.0 -41.184828 -18.451715 0.46193
328 1 1 1.0 -41.904524 -19.433977 3.934396
329 1 1 1.0 -41.155462 -18.279579 9.494847
330 1 1 1.0 -41.416407 -18.199694 10.726105
331 1 1 1.0 -41.180868 -18.748209 7.234063
332 1 1 1.0 25.539332 -17.859406 6.006632
333 1 1 1.0 26.909277 -17.977171 -1.847439
334 1 1 1.0 26.316915 -17.730536 -0.630105
335 1 1 1.0 26.164837 -17.989759 1.567061
336 1 1 1.0 26.541466 -18.449356 2.718326
337 1 1 1.0 25.828327 -18.069309 3.780048
338 1 1 1.0 25.345341 -17.344801 8.221111
339 1 1 1.0 25.779072 -17.465324 9.480718
340 1 1 1.0 26.933314 -17.212227 -4.132946
341 1 1 1.0 28.485387 -17.576317 -5.647056
342 1 1 1.0 27.948779 -17.829987 -4.477605
343 1 1 1.0 31.006815 -17.871286 17.839888
344 1 1 1.0 29.810116 -17.256254 17.935064
345 1 1 1.0 30.305393 -18.018106 -6.643884
346 1 1 1.0 29.536916 -18.16996 -5.72439
347 1 1 1.0 31.915648 -17.734083 18.825319
348 1 1 1.0 31.522695 -18.553383 -6.578847
349 1 1 1.0 33.057631 -18.243484 18.713356
350 1 1 1.0 32.402778 -18.349821 -7.623529
351 1 1 1.0 35.05884 -17.612173 -10.849608
352 1 1 1.0 34.151981 -17.873161 -9.783918
353 1 1 1.0 36.374593 -18.169252 -10.801547
354 1 1 1.0 37.34026 -17.852068 -11.784611
355 1 1 1.0 38.644822 -18.290426 -11.612185
356 1 1 1.0 39.642835 -17.829859 -12.378613
357 1 1 1.0 37.186643 -16.930288 23.186243
358 1 1 1.0 38.441114 -16.9317 23.535484
359 1 1 1.0 40.773911 -18.142471 -12.066815
360 1 1 1.0 39.473653 -17.604149 22.972826
361 1 1 1.0 41.861037 -17.714252 -12.591583
362 1 1 1.0 42.7816 -18.208221 -11.930687
363 1 1 1.0 40.987563 -17.190857 23.466957
364 1 1 1.0 42.150447 -17.836107 22.78639
365 1 1 1.0 43.834991 -18.130865 -12.008457
366 1 1 1.0 43.418184 -17.581472 23.063574
367 1 1 1.0 44.632721 -18.713938 -11.1678
368 1 1 1.0 45.763799 -18.500282 -11.470135
369 1 1 1.0 46.566765 -18.14485 22.355272
370 1 1 1.0 48.805688 -17.711172 22.333044
371 1 1 1.0 47.616684 -17.555853 22.87977
372 1 1 1.0 -47.373093 -17.263966 -10.162017
373 1 1 1.0 -48.882897 -17.71554 21.021408
374 1 1 1.0 -46.797075 -18.192163 -8.054287
375 1 1 1.0 -45.964201 -18.361292 -7.095313
376 1 1 1.0 -46.685905 -17.021288 20.613243
377 1 1 1.0 -47.819638 -17.666893 20.247728
378 1 1 1.0 -44.4167 -17.18656 -8.068719
379 1 1 1.0 -44.822939 -17.891493 -7.114478
380 1 1 1.0 -45.664492 -17.024672 19.724115
381 1 1 1.0 -45.836611 -17.648176 18.535385
382 1 1 1.0 -46.964043 -18.223877 18.23456
383 1 1 1.0 -44.126108 -18.072054 -6.241771
384 1 1 1.0 -45.099043 -18.200932 16.622152
385 1 1 1.0 -44.904646 -17.668756 17.653387
386 1 1 1.0 -43.089964 -17.603666 -6.113522
387 1 1 1.0 -44.320375 -18.268503 15.746659
388 1 1 1.0 -42.650984 -17.895205 -5.088849
389 1 1 1.0 -42.607317 -17.804113 14.725001
390 1 1 1.0 -43.226534 -17.71451 15.728507
391 1 1 1.0 -41.67433 -17.437227 -4.615631
392 1 1 1.0 -41.379133 -17.743101 -3.396501
393 1 1 1.0 -41.59244 -17.264645 14.387773
394 1 1 1.0 -40.225435 -17.434134 -1.375887
395 1 1 1.0 -40.213732 -17.934916 1.385829
396 1 1 1.0 -40.425516 -18.295649 2.66219
397 1 1 1.0 -41.381857 -17.578981 13.166306
398 1 1 1.0 -39.21402 -17.088245 0.896566
399 1 1 1.0 -40.23818 -18.426674 4.877975
400 1 1 1.0 -40.063108 -17.559727 9.271766
401 1 1 1.0 -38.711029 -17.277885 3.953309
402 1 1 1.0 -39.552282 -17.878035 5.888968
403 1 1 1.0 24.539842 -16.824793 2.483722
404 1 1 1.0 24.165315 -16.785942 4.588443
405 1 1 1.0 24.579147 -17.119509 5.783998
406 1 1 1.0 23.915516 -16.417603 6.683605
407 1 1 1.0 24.787601 -16.294064 -1.481567
408 1 1 1.0 25.264918 -16.388945 -2.669787
409 1 1 1.0 25.305816 -16.927122 -0.506052
410 1 1 1.0 24.861707 -16.743084 0.542866
411 1 1 1.0 25.238246 -17.250238 1.517699
412 1 1 1.0 26.375496 -17.268639 -2.911605
413 1 1 1.0 27.036759 -16.055683 -6.230928
414 1 1 1.0 27.838374 -16.472498 16.939745
415 1 1 1.0 28.778081 -16.624809 -7.591613
416 1 1 1.0 28.098893 -16.783937 -6.469837
417 1 1 1.0 28.912544 -17.282061 16.911039
418 1 1 1.0 30.330232 -16.205795 -9.769653
419 1 1 1.0 29.546688 -16.514894 19.074728
420 1 1 1.0 30.488081 -16.428028 20.085112
421 1 1 1.0 29.933052 -17.265335 -7.688327
422 1 1 1.0 31.660343 -17.032183 19.930883
423 1 1 1.0 32.691327 -16.917238 20.891294
424 1 1 1.0 35.674135 -16.273741 -12.86321
425 1 1 1.0 34.678186 -16.686274 -11.891391
426 1 1 1.0 34.685068 -16.205481 22.836325
427 1 1 1.0 35.208059 -17.127676 22.093267
428 1 1 1.0 38.096505 -16.40708 -13.645625
429 1 1 1.0 37.020456 -16.882452 -12.80449
430 1 1 1.0 36.596121 -15.944894 23.90538
431 1 1 1.0 40.534393 -16.360462 -14.022587
432 1 1 1.0 39.414321 -16.916128 -13.392173
433 1 1 1.0 38.59433 -15.882351 24.594408
434 1 1 1.0 41.850032 -16.845972 -13.533795
435 1 1 1.0 41.089246 -16.105858 24.533829
436 1 1 1.0 44.542525 -17.526846 -12.770444
437 1 1 1.0 44.008795 -16.786617 23.894356
438 1 1 1.0 46.739905 -17.326469 -12.887866
439 1 1 1.0 45.765491 -17.794205 -12.43454
440 1 1 1.0 48.979762 -16.927923 -12.712571
441 1 1 1.0 47.417027 -16.671099 23.882393
442 1 1 1.0 -49.762662 -17.008224 -12.027871
443 1 1 1.0 49.836656 -16.917128 22.795977
444 1 1 1.0 -46.629234 -16.177042 21.849609
445 1 1 1.0 -45.200941 -16.951336 -9.085522
446 1 1 1.0 -43.250196 -16.639786 -7.934525
447 1 1 1.0 -42.620291 -16.876329 -6.852035
448 1 1 1.0 -43.786081 -17.044449 17.854166
449 1 1 1.0 -41.02659 -16.529276 -5.307778
450 1 1 1.0 -40.357447 -17.159616 -2.725172
451 1 1 1.0 -40.414513 -17.35911 11.309344
452 1 1 1.0 -40.449579 -17.067137 12.476977
453 1 1 1.0 -39.472366 -16.159189 -3.408845
454 1 1 1.0 -39.254425 -16.80752 -0.596723
455 1 1 1.0 -38.177879 -16.408072 1.681384
456 1 1 1.0 -39.989729 -17.976244 7.060377
457 1 1 1.0 -39.655115 -16.985533 10.400951
458 1 1 1.0 -38.696753 -16.234045 10.376982
459 1 1 1.0 -38.347635 -15.921944 -1.171929
460 1 1 1.0 -37.266233 -15.493035 0.938171
461 1 1 1.0 -37.980425 -16.536135 3.139242
462 1 1 1.0 -38.568687 -17.188391 5.409
463 1 1 1.0 -38.509958 -16.617662 8.142903
464 1 1 1.0 -38.138311 -16.058237 9.25184
465 1 1 1.0 23.205257 -15.96152 4.719476
466 1 1 1.0 23.021003 -15.734525 6.089873
467 1 1 1.0 23.968871 -16.016809 0.77842
468 1 1 1.0 23.740468 -16.047033 2.014492
469 1 1 1.0 25.187041 -16.758501 10.458179
470 1 1 1.0 25.117867 -16.172476 12.670552
471 1 1 1.0 25.68816 -16.251961 13.81508
472 1 1 1.0 25.352332 -15.484649 14.766397
473 1 1 1.0 24.753749 -15.594559 -3.624157
474 1 1 1.0 27.25471 -17.071091 14.965377
475 1 1 1.0 28.192834 -14.912529 20.191854
476 1 1 1.0 28.429883 -15.750882 19.105116
477 1 1 1.0 31.261469 -15.404407 22.085052
478 1 1 1.0 33.457582 -15.730568 22.783636
479 1 1 1.0 35.322701 -15.116252 -13.87704
480 1 1 1.0 35.00062 -14.645981 24.478067
481 1 1 1.0 35.481368 -15.598371 23.766233
482 1 1 1.0 40.385711 -15.293899 -15.082965
483 1 1 1.0 37.425109 -15.359138 24.77878
484 1 1 1.0 39.728552 -15.469803 25.098623
485 1 1 1.0 43.011692 -16.305466 -14.084277
486 1 1 1.0 43.644064 -15.897308 24.741798
487 1 1 1.0 44.295415 -16.702847 -13.663437
488 1 1 1.0 45.414315 -16.099367 -14.278607
489 1 1 1.0 46.635839 -16.455629 -13.838941
490 1 1 1.0 46.197991 -16.424078 24.255365
491 1 1 1.0 45.96207 -15.504204 25.155647
492 1 1 1.0 48.161687 -15.056951 25.318985
493 1 1 1.0 48.396851 -15.945895 24.360716
494 1 1 1.0 49.627476 -16.036604 23.82103
495 1 1 1.0 -48.861018 -16.261909 -12.437329
496 1 1 1.0 -48.960433 -16.97533 22.149725
497 1 1 1.0 -47.8405 -16.082438 22.612413
498 1 1 1.0 -47.227581 -15.125679 -12.930103
499 1 1 1.0 -47.681335 -16.049755 -12.110729
500 1 1 1.0 -45.586464 -15.880057 -11.109178
501 1 1 1.0 -44.754829 -16.17079 -10.086842
502 1 1 1.0 -45.413353 -15.430852 22.128778
503 1 1 1.0 -43.487244 -15.579666 -9.966106
504 1 1 1.0 -42.766851 -15.813441 -8.830592
505 1 1 1.0 -42.886639 -17.022629 16.804779
506 1 1 1.0 -40.969946 -16.54579 14.903058
507 1 1 1.0 -41.821608 -16.253733 16.905264
508 1 1 1.0 -41.032652 -16.072546 16.007965
509 1 1 1.0 -39.644796 -16.221542 13.134461
510 1 1 1.0 -39.434923 -15.244716 15.100003
511 1 1 1.0 -39.954576 -16.014532 14.339077
512 1 1 1.0 -38.433565 -15.548131 -2.634766
513 1 1 1.0 -37.395586 -15.287632 -0.421853
514 1 1 1.0 -36.251984 -14.780041 1.573661
515 1 1 1.0 -36.82559 -15.721909 3.776009
516 1 1 1.0 -36.008795 -14.880852 2.953641
517 1 1 1.0 -36.709913 -15.686421 5.190162
518 1 1 1.0 -35.676184 -14.7472 5.87885
519 1 1 1.0 22.445897 -14.604207 0.309166
520 1 1 1.0 22.108498 -14.547679 1.599322
521 1 1 1.0 22.851825 -15.360611 2.502023
522 1 1 1.0 22.719251 -14.951115 8.720595
523 1 1 1.0 22.199615 -14.281753 9.751766
524 1 1 1.0 22.578502 -14.359677 10.91981
525 1 1 1.0 23.218689 -14.792313 -2.180866
526 1 1 1.0 23.417624 -15.386916 -0.024205
527 1 1 1.0 24.09682 -15.330216 12.449489
528 1 1 1.0 23.637428 -14.566083 13.484025
529 1 1 1.0 24.32265 -14.64103 14.656405
530 1 1 1.0 24.834416 -13.872741 16.759958
531 1 1 1.0 26.607426 -14.802718 17.931877
532 1 1 1.0 27.13029 -14.02813 20.105883
533 1 1 1.0 28.714232 -14.669667 -10.647008
534 1 1 1.0 29.085352 -14.873803 21.281324
535 1 1 1.0 28.903473 -13.866928 22.375481
536 1 1 1.0 31.151451 -14.480672 23.053354
537 1 1 1.0 32.116877 -14.231537 23.691322
538 1 1 1.0 33.933819 -14.539927 -13.842534
539 1 1 1.0 33.914476 -14.316163 24.345572
540 1 1 1.0 33.167738 -14.79364 23.581049
541 1 1 1.0 35.716678 -14.045911 25.346754
542 1 1 1.0 36.433175 -14.673019 -14.790005
543 1 1 1.0 37.860658 -15.355138 -14.61731
544 1 1 1.0 37.026414 -14.412545 25.508318
545 1 1 1.0 38.763213 -13.853725 -16.304911
546 1 1 1.0 39.029793 -14.797623 -15.424233
547 1 1 1.0 37.725042 -13.730487 26.419226
548 1 1 1.0 38.925396 -13.815932 26.615568
549 1 1 1.0 41.591419 -14.751981 -15.653508
550 1 1 1.0 39.834384 -14.50357 26.01506
551 1 1 1.0 42.90176 -15.278038 -15.143613
552 1 1 1.0 42.161698 -14.437668 26.120422
553 1 1 1.0 43.253902 -13.853313 26.701141
554 1 1 1.0 47.711446 -15.85303 -14.27882
555 1 1 1.0 46.945943 -14.862282 25.740942
556 1 1 1.0 49.897105 -15.35146 -14.004494
557 1 1 1.0 48.875084 -16.06271 -13.698318
558 1 1 1.0 -49.096573 -15.47036 -13.428207
559 1 1 1.0 -49.415565 -15.197411 24.248133
560 1 1 1.0 -49.690593 -14.330684 25.222733
561 1 1 1.0 -48.086452 -15.18504 23.68577
562 1 1 1.0 -46.091444 -14.010506 23.997147
563 1 1 1.0 -47.294528 -14.333131 24.188311
564 1 1 1.0 -46.126818 -14.622188 -12.952438
565 1 1 1.0 -45.201422 -14.988892 -12.062622
566 1 1 1.0 -45.21142 -14.43426 23.183159
567 1 1 1.0 -43.139299 -14.905236 21.285902
568 1 1 1.0 -41.624001 -15.144573 -8.550029
569 1 1 1.0 -41.124596 -14.217961 -9.394974
570 1 1 1.0 -39.434164 -13.700644 -7.819685
571 1 1 1.0 -39.921631 -14.628097 -6.958368
572 1 1 1.0 -40.588181 -14.70894 18.146154
573 1 1 1.0 -41.616982 -15.53765 18.086748
574 1 1 1.0 -38.12818 -14.037422 -5.342625
575 1 1 1.0 -40.057234 -15.249348 16.133768
576 1 1 1.0 -39.81739 -14.601825 17.090471
577 1 1 1.0 -37.337835 -13.996009 -4.225906
578 1 1 1.0 -37.474585 -14.615565 -3.054371
579 1 1 1.0 -36.613585 -14.196556 -2.140182
580 1 1 1.0 -37.852816 -14.618942 13.622081
581 1 1 1.0 -38.379318 -14.52204 14.859349
582 1 1 1.0 -35.724897 -13.86243 -0.390426
583 1 1 1.0 -35.48572 -13.942257 0.793713
584 1 1 1.0 -36.871519 -15.369744 7.849119
585 1 1 1.0 -35.835512 -14.645999 7.298179
586 1 1 1.0 -36.645317 -14.716236 9.874952
587 1 1 1.0 -37.177576 -15.338074 9.046439
588 1 1 1.0 -37.074112 -14.769343 11.098743
589 1 1 1.0 -34.524363 -13.203354 1.311042
590 1 1 1.0 -34.226278 -13.245061 2.636159
591 1 1 1.0 -34.944445 -14.084775 3.49881
592 1 1 1.0 -34.727514 -13.98661 5.009865
593 1 1 1.0 -35.106064 -13.84463 8.218748
594 1 1 1.0 20.390463 -13.321404 6.088741
595 1 1 1.0 21.093266 -13.722221 2.00906
596 1 1 1.0 20.772371 -13.651538 3.363078
597 1 1 1.0 21.310216 -14.258815 5.615492
598 1 1 1.0 20.59008 -12.783035 10.033599
599 1 1 1.0 21.646886 -13.221577 -2.877197
600 1 1 1.0 22.211005 -13.97379 -1.898919
601 1 1 1.0 21.812836 -13.878901 -0.619957
602 1 1 1.0 21.919345 -13.524087 11.988439
603 1 1 1.0 22.481139 -13.598367 13.30746
604 1 1 1.0 23.847969 -13.840851 -5.414189
605 1 1 1.0 22.197128 -13.213979 -4.06552
606 1 1 1.0 24.047966 -13.819676 15.661685
607 1 1 1.0 25.842979 -14.736316 16.83003
608 1 1 1.0 26.355622 -13.986523 18.956861
609 1 1 1.0 26.861783 -13.144824 21.122021
610 1 1 1.0 27.742448 -13.022347 22.302147
611 1 1 1.0 29.971896 -13.69468 23.267431
612 1 1 1.0 30.043603 -12.751468 24.235718
613 1 1 1.0 30.032833 -13.038444 -13.557935
614 1 1 1.0 32.089087 -13.124992 -14.45142
615 1 1 1.0 31.278557 -13.577792 -13.627727
616 1 1 1.0 32.207548 -13.339108 24.589117
617 1 1 1.0 33.953657 -12.810883 -15.579356
618 1 1 1.0 33.434358 -13.553665 -14.61599
619 1 1 1.0 33.33377 -13.39902 24.990023
620 1 1 1.0 33.894224 -12.776379 25.817474
621 1 1 1.0 35.190988 -13.093452 26.041708
622 1 1 1.0 36.333096 -13.609256 -15.792989
623 1 1 1.0 37.494 -13.347476 -16.500971
624 1 1 1.0 37.08486 -12.724243 27.145433
625 1 1 1.0 39.565454 -12.890038 27.526957
626 1 1 1.0 40.803994 -13.052587 27.425104
627 1 1 1.0 42.847289 -13.364135 -17.064371
628 1 1 1.0 43.084721 -12.874602 27.654535
629 1 1 1.0 46.433433 -14.62846 -15.754762
630 1 1 1.0 45.517937 -13.637853 26.985559
631 1 1 1.0 45.338687 -12.713212 27.890312
632 1 1 1.0 47.626472 -14.954823 -15.233864
633 1 1 1.0 46.724709 -13.948315 26.645575
634 1 1 1.0 47.697637 -13.288535 27.161407
635 1 1 1.0 48.685275 -13.399647 -16.53171
636 1 1 1.0 48.721982 -14.299504 -15.583608
637 1 1 1.0 49.828977 -14.486463 -14.934741
638 1 1 1.0 49.117286 -14.280934 25.753897
639 1 1 1.0 48.874469 -13.426484 26.691687
640 1 1 1.0 -49.097178 -12.904079 -16.090219
641 1 1 1.0 -49.100026 -13.786895 -15.180591
642 1 1 1.0 -48.048599 -14.004719 -14.483823
643 1 1 1.0 -48.787786 -13.524455 25.634256
644 1 1 1.0 -48.113274 -14.823186 -13.661686
645 1 1 1.0 -47.720834 -13.539273 25.162199
646 1 1 1.0 -46.83275 -12.795178 25.5292
647 1 1 1.0 -43.912827 -13.746471 23.238256
648 1 1 1.0 -42.95051 -14.002954 22.317892
649 1 1 1.0 -40.033752 -13.500443 -9.027697
650 1 1 1.0 -36.109186 -12.417629 -5.148606
651 1 1 1.0 -36.351568 -13.130787 -4.263451
652 1 1 1.0 -37.973709 -13.694509 15.898384
653 1 1 1.0 -38.789473 -13.769661 17.095743
654 1 1 1.0 -35.659058 -13.315842 -2.358073
655 1 1 1.0 -35.107 -13.109586 -1.271973
656 1 1 1.0 -35.60981 -13.946538 9.598201
657 1 1 1.0 -33.328028 -12.39829 3.075217
658 1 1 1.0 -33.058084 -12.249959 4.342486
659 1 1 1.0 -33.739397 -12.998569 5.414482
660 1 1 1.0 -33.455032 -12.527885 6.735785
661 1 1 1.0 -34.048485 -12.911537 7.982277
662 1 1 1.0 20.181734 -12.268001 -1.263061
663 1 1 1.0 20.416088 -12.933513 1.060548
664 1 1 1.0 19.784811 -12.737053 3.821063
665 1 1 1.0 19.594042 -12.576421 5.216866
666 1 1 1.0 20.100925 -11.461437 -3.613581
667 1 1 1.0 20.749697 -11.471652 -4.834301
668 1 1 1.0 20.632195 -12.361023 -2.582983
669 1 1 1.0 20.798256 -13.033665 -0.278312
670 1 1 1.0 20.845469 -12.670074 11.509251
671 1 1 1.0 21.129451 -11.792905 14.588161
672 1 1 1.0 22.143991 -12.796044 14.441562
673 1 1 1.0 22.29055 -11.585546 -6.921576
674 1 1 1.0 23.025597 -12.942406 15.623405
675 1 1 1.0 22.818516 -12.149063 16.661894
676 1 1 1.0 23.947534 -12.73825 -7.36705
677 1 1 1.0 23.595233 -12.222301 17.702621
678 1 1 1.0 24.588764 -13.068707 17.762407
679 1 1 1.0 25.221812 -12.239665 -10.037026
680 1 1 1.0 25.345523 -13.116088 18.857466
681 1 1 1.0 25.077403 -12.298017 19.841026
682 1 1 1.0 25.818996 -12.285145 20.956564
683 1 1 1.0 26.656451 -11.023974 -13.140663
684 1 1 1.0 27.461507 -11.985588 23.161947
685 1 1 1.0 31.767351 -12.110538 -15.321597
686 1 1 1.0 32.839671 -11.86573 -16.02965
687 1 1 1.0 33.376126 -11.845042 26.51824
688 1 1 1.0 35.39032 -11.775004 -17.190544
689 1 1 1.0 35.157242 -12.784805 -16.112103
690 1 1 1.0 35.316588 -11.51392 27.611298
691 1 1 1.0 35.860542 -12.453843 26.92948
692 1 1 1.0 37.679166 -12.084105 27.972834
693 1 1 1.0 38.959406 -12.164455 28.158018
694 1 1 1.0 41.768697 -12.463528 28.014587
695 1 1 1.0 44.141705 -12.325011 28.230314
696 1 1 1.0 46.362003 -13.693733 -16.72175